 Entering Gaussian System, Link 0=g16
 Input=butadiene.com
 Output=butadiene.log
 Initial command:
 /home/ubuntu/g16/l1.exe "/home/ubuntu/g16/SCRATCH/Gau-11171.inp" -scrdir="/home/ubuntu/g16/SCRATCH/"
 Entering Link 1 = /home/ubuntu/g16/l1.exe PID=     11173.
  
 Copyright (c) 1988,1990,1992,1993,1995,1998,2003,2009,2016,
            Gaussian, Inc.  All Rights Reserved.
  
 This is part of the Gaussian(R) 16 program.  It is based on
 the Gaussian(R) 09 system (copyright 2009, Gaussian, Inc.),
 the Gaussian(R) 03 system (copyright 2003, Gaussian, Inc.),
 the Gaussian(R) 98 system (copyright 1998, Gaussian, Inc.),
 the Gaussian(R) 94 system (copyright 1995, Gaussian, Inc.),
 the Gaussian 92(TM) system (copyright 1992, Gaussian, Inc.),
 the Gaussian 90(TM) system (copyright 1990, Gaussian, Inc.),
 the Gaussian 88(TM) system (copyright 1988, Gaussian, Inc.),
 the Gaussian 86(TM) system (copyright 1986, Carnegie Mellon
 University), and the Gaussian 82(TM) system (copyright 1983,
 Carnegie Mellon University). Gaussian is a federally registered
 trademark of Gaussian, Inc.
  
 This software contains proprietary and confidential information,
 including trade secrets, belonging to Gaussian, Inc.
  
 This software is provided under written license and may be
 used, copied, transmitted, or stored only in accord with that
 written license.
  
 The following legend is applicable only to US Government
 contracts under FAR:
  
                    RESTRICTED RIGHTS LEGEND
  
 Use, reproduction and disclosure by the US Government is
 subject to restrictions as set forth in subparagraphs (a)
 and (c) of the Commercial Computer Software - Restricted
 Rights clause in FAR 52.227-19.
  
 Gaussian, Inc.
 340 Quinnipiac St., Bldg. 40, Wallingford CT 06492
  
  
 ---------------------------------------------------------------
 Warning -- This program may not be used in any manner that
 competes with the business of Gaussian, Inc. or will provide
 assistance to any competitor of Gaussian, Inc.  The licensee
 of this program is prohibited from giving any competitor of
 Gaussian, Inc. access to this program.  By using this program,
 the user acknowledges that Gaussian, Inc. is engaged in the
 business of creating and licensing software in the field of
 computational chemistry and represents and warrants to the
 licensee that it is not a competitor of Gaussian, Inc. and that
 it will not use this program in any manner prohibited above.
 ---------------------------------------------------------------
  

 Cite this work as:
 Gaussian 16, Revision A.03,
 M. J. Frisch, G. W. Trucks, H. B. Schlegel, G. E. Scuseria, 
 M. A. Robb, J. R. Cheeseman, G. Scalmani, V. Barone, 
 G. A. Petersson, H. Nakatsuji, X. Li, M. Caricato, A. V. Marenich, 
 J. Bloino, B. G. Janesko, R. Gomperts, B. Mennucci, H. P. Hratchian, 
 J. V. Ortiz, A. F. Izmaylov, J. L. Sonnenberg, D. Williams-Young, 
 F. Ding, F. Lipparini, F. Egidi, J. Goings, B. Peng, A. Petrone, 
 T. Henderson, D. Ranasinghe, V. G. Zakrzewski, J. Gao, N. Rega, 
 G. Zheng, W. Liang, M. Hada, M. Ehara, K. Toyota, R. Fukuda, 
 J. Hasegawa, M. Ishida, T. Nakajima, Y. Honda, O. Kitao, H. Nakai, 
 T. Vreven, K. Throssell, J. A. Montgomery, Jr., J. E. Peralta, 
 F. Ogliaro, M. J. Bearpark, J. J. Heyd, E. N. Brothers, K. N. Kudin, 
 V. N. Staroverov, T. A. Keith, R. Kobayashi, J. Normand, 
 K. Raghavachari, A. P. Rendell, J. C. Burant, S. S. Iyengar, 
 J. Tomasi, M. Cossi, J. M. Millam, M. Klene, C. Adamo, R. Cammi, 
 J. W. Ochterski, R. L. Martin, K. Morokuma, O. Farkas, 
 J. B. Foresman, and D. J. Fox, Gaussian, Inc., Wallingford CT, 2016.
 
 ******************************************
 Gaussian 16:  ES64L-G16RevA.03 25-Dec-2016
                 2-Mar-2023 
 ******************************************
 %chk=butadiene.chk
 -------------------
 # opt freq hf/3-21g
 -------------------
 1/18=20,19=15,38=1/1,3;
 2/9=110,12=2,17=6,18=5,40=1/2;
 3/5=5,11=9,25=1,30=1,71=1/1,2,3;
 4//1;
 5/5=2,38=5/2;
 6/7=2,8=2,9=2,10=2,28=1/1;
 7//1,2,3,16;
 1/18=20,19=15/3(2);
 2/9=110/2;
 99//99;
 2/9=110/2;
 3/5=5,11=9,25=1,30=1,71=1/1,2,3;
 4/5=5,16=3,69=1/1;
 5/5=2,38=5/2;
 7//1,2,3,16;
 1/18=20,19=15/3(-5);
 2/9=110/2;
 6/7=2,8=2,9=2,10=2,19=2,28=1/1;
 99/9=1/99;
 -------------------------
 Opt and Freq Calculations
 -------------------------
 Symbolic Z-matrix:
 Charge =  0 Multiplicity = 1
 C                    -0.00002   0.40156   0.6139 
 H                     0.00004   1.46907   0.48183 
 C                    -0.00001  -0.40156  -0.61389 
 H                     0.00003  -1.46907  -0.48182 
 C                    -0.00001   0.11126  -1.83067 
 H                     0.00004   1.17262  -1.99776 
 C                    -0.00001  -0.11126   1.83067 
 H                     0.00007   0.50928   2.70534 
 H                     0.00002  -1.17262   1.99775 
 H                     0.00004  -0.50928  -2.70534 
 

 GradGradGradGradGradGradGradGradGradGradGradGradGradGradGradGradGradGrad
 Berny optimization.
 Initialization pass.
                           ----------------------------
                           !    Initial Parameters    !
                           ! (Angstroms and Degrees)  !
 --------------------------                            --------------------------
 ! Name  Definition              Value          Derivative Info.                !
 --------------------------------------------------------------------------------
 ! R1    R(1,2)                  1.0757         estimate D2E/DX2                !
 ! R2    R(1,3)                  1.4671         estimate D2E/DX2                !
 ! R3    R(1,7)                  1.3204         estimate D2E/DX2                !
 ! R4    R(3,4)                  1.0757         estimate D2E/DX2                !
 ! R5    R(3,5)                  1.3204         estimate D2E/DX2                !
 ! R6    R(5,6)                  1.0744         estimate D2E/DX2                !
 ! R7    R(5,10)                 1.0724         estimate D2E/DX2                !
 ! R8    R(7,8)                  1.0724         estimate D2E/DX2                !
 ! R9    R(7,9)                  1.0744         estimate D2E/DX2                !
 ! A1    A(2,1,3)              116.1368         estimate D2E/DX2                !
 ! A2    A(2,1,7)              119.9058         estimate D2E/DX2                !
 ! A3    A(3,1,7)              123.9573         estimate D2E/DX2                !
 ! A4    A(1,3,4)              116.1366         estimate D2E/DX2                !
 ! A5    A(1,3,5)              123.9575         estimate D2E/DX2                !
 ! A6    A(4,3,5)              119.9059         estimate D2E/DX2                !
 ! A7    A(3,5,6)              121.8001         estimate D2E/DX2                !
 ! A8    A(3,5,10)             121.7925         estimate D2E/DX2                !
 ! A9    A(6,5,10)             116.4073         estimate D2E/DX2                !
 ! A10   A(1,7,8)              121.7926         estimate D2E/DX2                !
 ! A11   A(1,7,9)              121.7999         estimate D2E/DX2                !
 ! A12   A(8,7,9)              116.4076         estimate D2E/DX2                !
 ! D1    D(2,1,3,4)            179.994          estimate D2E/DX2                !
 ! D2    D(2,1,3,5)             -0.0043         estimate D2E/DX2                !
 ! D3    D(7,1,3,4)             -0.0009         estimate D2E/DX2                !
 ! D4    D(7,1,3,5)           -179.9992         estimate D2E/DX2                !
 ! D5    D(2,1,7,8)             -0.0003         estimate D2E/DX2                !
 ! D6    D(2,1,7,9)           -179.9946         estimate D2E/DX2                !
 ! D7    D(3,1,7,8)            179.9945         estimate D2E/DX2                !
 ! D8    D(3,1,7,9)              0.0002         estimate D2E/DX2                !
 ! D9    D(1,3,5,6)              0.0035         estimate D2E/DX2                !
 ! D10   D(1,3,5,10)           179.9975         estimate D2E/DX2                !
 ! D11   D(4,3,5,6)           -179.9948         estimate D2E/DX2                !
 ! D12   D(4,3,5,10)            -0.0008         estimate D2E/DX2                !
 --------------------------------------------------------------------------------
 Trust Radius=3.00D-01 FncErr=1.00D-07 GrdErr=1.00D-07 EigMax=2.50D+02 EigMin=1.00D-04
 Number of steps in this run=     43 maximum allowed number of steps=    100.
 GradGradGradGradGradGradGradGradGradGradGradGradGradGradGradGradGradGrad

                          Input orientation:                          
 ---------------------------------------------------------------------
 Center     Atomic      Atomic             Coordinates (Angstroms)
 Number     Number       Type             X           Y           Z
 ---------------------------------------------------------------------
      1          6           0       -0.000021    0.401557    0.613896
      2          1           0        0.000039    1.469071    0.481831
      3          6           0       -0.000006   -0.401555   -0.613893
      4          1           0        0.000034   -1.469069   -0.481823
      5          6           0       -0.000007    0.111261   -1.830668
      6          1           0        0.000036    1.172616   -1.997762
      7          6           0       -0.000006   -0.111262    1.830666
      8          1           0        0.000070    0.509279    2.705337
      9          1           0        0.000022   -1.172618    1.997751
     10          1           0        0.000044   -0.509284   -2.705338
 ---------------------------------------------------------------------
                    Distance matrix (angstroms):
                    1          2          3          4          5
     1  C    0.000000
     2  H    1.075652   0.000000
     3  C    1.467125   2.167915   0.000000
     4  H    2.167912   3.092135   1.075652   0.000000
     5  C    2.461740   2.681660   1.320425   2.077697   0.000000
     6  H    2.723103   2.497252   2.095975   3.045746   1.074428
     7  C    1.320421   2.077693   2.461734   2.681650   3.668089
     8  H    2.094214   2.421814   3.441934   3.751247   4.553434
     9  H    2.095968   3.045740   2.723090   2.497232   4.037962
    10  H    3.441939   3.751257   2.094217   2.421819   1.072438
                    6          7          8          9         10
     6  H    0.000000
     7  C    4.037970   0.000000
     8  H    4.749649   1.072437   0.000000
     9  H    4.632952   1.074427   1.824680   0.000000
    10  H    1.824678   4.553432   5.505713   4.749637   0.000000
 Stoichiometry    C4H6
 Framework group  C1[X(C4H6)]
 Deg. of freedom    24
 Full point group                 C1      NOp   1
 Largest Abelian subgroup         C1      NOp   1
 Largest concise Abelian subgroup C1      NOp   1
                         Standard orientation:                         
 ---------------------------------------------------------------------
 Center     Atomic      Atomic             Coordinates (Angstroms)
 Number     Number       Type             X           Y           Z
 ---------------------------------------------------------------------
      1          6           0       -0.613896    0.401557   -0.000021
      2          1           0       -0.481831    1.469071    0.000039
      3          6           0        0.613893   -0.401555   -0.000006
      4          1           0        0.481823   -1.469069    0.000034
      5          6           0        1.830668    0.111261   -0.000007
      6          1           0        1.997762    1.172616    0.000036
      7          6           0       -1.830666   -0.111262   -0.000006
      8          1           0       -2.705337    0.509279    0.000070
      9          1           0       -1.997751   -1.172618    0.000022
     10          1           0        2.705338   -0.509284    0.000044
 ---------------------------------------------------------------------
 Rotational constants (GHZ):          42.7962880           4.4825254           4.0575352
 Standard basis: 3-21G (6D, 7F)
 There are    48 symmetry adapted cartesian basis functions of A   symmetry.
 There are    48 symmetry adapted basis functions of A   symmetry.
    48 basis functions,    78 primitive gaussians,    48 cartesian basis functions
    15 alpha electrons       15 beta electrons
       nuclear repulsion energy       104.4796843148 Hartrees.
 NAtoms=   10 NActive=   10 NUniq=   10 SFac= 1.00D+00 NAtFMM=   60 NAOKFM=F Big=F
 Integral buffers will be    131072 words long.
 Raffenetti 1 integral format.
 Two-electron integral symmetry is turned on.
 One-electron integrals computed using PRISM.
 NBasis=    48 RedAO= T EigKep=  8.46D-03  NBF=    48
 NBsUse=    48 1.00D-06 EigRej= -1.00D+00 NBFU=    48
 ExpMin= 1.83D-01 ExpMax= 1.72D+02 ExpMxC= 1.72D+02 IAcc=3 IRadAn=         5 AccDes= 0.00D+00
 Harris functional with IExCor=  205 and IRadAn=       5 diagonalized for initial guess.
 HarFok:  IExCor=  205 AccDes= 0.00D+00 IRadAn=         5 IDoV= 1 UseB2=F ITyADJ=14
 ICtDFT=  3500011 ScaDFX=  1.000000  1.000000  1.000000  1.000000
 FoFCou: FMM=F IPFlag=           0 FMFlag=      100000 FMFlg1=           0
         NFxFlg=           0 DoJE=T BraDBF=F KetDBF=T FulRan=T
         wScrn=  0.000000 ICntrl=       500 IOpCl=  0 I1Cent=   200000004 NGrid=           0
         NMat0=    1 NMatS0=      1 NMatT0=    0 NMatD0=    1 NMtDS0=    0 NMtDT0=    0
 Petite list used in FoFCou.
 Keep R1 ints in memory in canonical form, NReq=1508998.
 Requested convergence on RMS density matrix=1.00D-08 within 128 cycles.
 Requested convergence on MAX density matrix=1.00D-06.
 Requested convergence on             energy=1.00D-06.
 No special actions if energy rises.
 SCF Done:  E(RHF) =  -154.059456577     A.U. after    9 cycles
            NFock=  9  Conv=0.94D-08     -V/T= 2.0020

 **********************************************************************

            Population analysis using the SCF density.

 **********************************************************************

 Orbital symmetries:
       Occupied  (A) (A) (A) (A) (A) (A) (A) (A) (A) (A) (A) (A)
                 (A) (A) (A)
       Virtual   (A) (A) (A) (A) (A) (A) (A) (A) (A) (A) (A) (A)
                 (A) (A) (A) (A) (A) (A) (A) (A) (A) (A) (A) (A)
                 (A) (A) (A) (A) (A) (A) (A) (A) (A)
 The electronic state is 1-A.
 Alpha  occ. eigenvalues --  -11.17856 -11.17814 -11.16643 -11.16632  -1.09338
 Alpha  occ. eigenvalues --   -1.00728  -0.82189  -0.75580  -0.64967  -0.64024
 Alpha  occ. eigenvalues --   -0.56176  -0.54248  -0.48466  -0.44795  -0.32513
 Alpha virt. eigenvalues --    0.13181   0.27054   0.28637   0.30001   0.30882
 Alpha virt. eigenvalues --    0.35794   0.37567   0.40572   0.55878   0.56138
 Alpha virt. eigenvalues --    0.61073   0.82969   0.90258   0.96963   0.99780
 Alpha virt. eigenvalues --    1.01830   1.10876   1.10916   1.11336   1.11504
 Alpha virt. eigenvalues --    1.12981   1.31580   1.32299   1.37723   1.38069
 Alpha virt. eigenvalues --    1.44389   1.54373   1.59013   1.63007   1.77481
 Alpha virt. eigenvalues --    1.80107   1.97254   2.18607
          Condensed to atoms (all electrons):
               1          2          3          4          5          6
     1  C    5.228467   0.400908   0.323499  -0.040184  -0.090158   0.000366
     2  H    0.400908   0.436898  -0.040183   0.001531   0.002494   0.002149
     3  C    0.323499  -0.040183   5.228463   0.400908   0.528194  -0.057593
     4  H   -0.040184   0.001531   0.400908   0.436899  -0.034421   0.002077
     5  C   -0.090158   0.002494   0.528194  -0.034421   5.206874   0.401127
     6  H    0.000366   0.002149  -0.057593   0.002077   0.401127   0.461509
     7  C    0.528192  -0.034422  -0.090159   0.002494   0.001726   0.000115
     8  H   -0.049269  -0.002141   0.002548   0.000004  -0.000062  -0.000001
     9  H   -0.057594   0.002077   0.000366   0.002149   0.000115   0.000006
    10  H    0.002548   0.000004  -0.049269  -0.002141   0.395999  -0.020717
               7          8          9         10
     1  C    0.528192  -0.049269  -0.057594   0.002548
     2  H   -0.034422  -0.002141   0.002077   0.000004
     3  C   -0.090159   0.002548   0.000366  -0.049269
     4  H    0.002494   0.000004   0.002149  -0.002141
     5  C    0.001726  -0.000062   0.000115   0.395999
     6  H    0.000115  -0.000001   0.000006  -0.020717
     7  C    5.206876   0.395999   0.401127  -0.000062
     8  H    0.395999   0.456620  -0.020717   0.000000
     9  H    0.401127  -0.020717   0.461509  -0.000001
    10  H   -0.000062   0.000000  -0.000001   0.456621
 Mulliken charges:
               1
     1  C   -0.246776
     2  H    0.230684
     3  C   -0.246776
     4  H    0.230683
     5  C   -0.411887
     6  H    0.210962
     7  C   -0.411887
     8  H    0.217017
     9  H    0.210962
    10  H    0.217017
 Sum of Mulliken charges =  -0.00000
 Mulliken charges with hydrogens summed into heavy atoms:
               1
     1  C   -0.016093
     3  C   -0.016092
     5  C    0.016092
     7  C    0.016093
 Electronic spatial extent (au):  <R**2>=            332.4540
 Charge=             -0.0000 electrons
 Dipole moment (field-independent basis, Debye):
    X=             -0.0000    Y=              0.0000    Z=              0.0002  Tot=              0.0002
 Quadrupole moment (field-independent basis, Debye-Ang):
   XX=            -22.8549   YY=            -22.7866   ZZ=            -29.3145
   XY=              0.1745   XZ=             -0.0000   YZ=              0.0001
 Traceless Quadrupole moment (field-independent basis, Debye-Ang):
   XX=              2.1304   YY=              2.1987   ZZ=             -4.3291
   XY=              0.1745   XZ=             -0.0000   YZ=              0.0001
 Octapole moment (field-independent basis, Debye-Ang**2):
  XXX=              0.0000  YYY=              0.0000  ZZZ=              0.0003  XYY=             -0.0000
  XXY=              0.0000  XXZ=              0.0013  XZZ=             -0.0000  YZZ=              0.0000
  YYZ=              0.0005  XYZ=             -0.0001
 Hexadecapole moment (field-independent basis, Debye-Ang**3):
 XXXX=           -327.8018 YYYY=            -58.6403 ZZZZ=            -30.9214 XXXY=             -4.9874
 XXXZ=             -0.0005 YYYX=              2.1714 YYYZ=              0.0001 ZZZX=             -0.0001
 ZZZY=              0.0001 XXYY=            -64.9571 XXZZ=            -73.6614 YYZZ=            -17.1548
 XXYZ=              0.0002 YYXZ=             -0.0000 ZZXY=              0.3515
 N-N= 1.044796843148D+02 E-N=-5.667834501562D+02  KE= 1.537445153098D+02
 Calling FoFJK, ICntrl=      2127 FMM=F ISym2X=0 I1Cent= 0 IOpClX= 0 NMat=1 NMatS=1 NMatT=0.
 ***** Axes restored to original set *****
 -------------------------------------------------------------------
 Center     Atomic                   Forces (Hartrees/Bohr)
 Number     Number              X              Y              Z
 -------------------------------------------------------------------
      1        6           0.000006782   -0.000000685   -0.000000792
      2        1          -0.000003936    0.000000853    0.000000017
      3        6          -0.000002055    0.000002809   -0.000004154
      4        1          -0.000002764   -0.000000535   -0.000000578
      5        6           0.000008422   -0.000002890    0.000008160
      6        1          -0.000004412    0.000000309   -0.000000300
      7        6           0.000006482    0.000000908   -0.000003820
      8        1          -0.000003304   -0.000000491   -0.000000039
      9        1          -0.000003252   -0.000000552    0.000001112
     10        1          -0.000001964    0.000000275    0.000000395
 -------------------------------------------------------------------
 Cartesian Forces:  Max     0.000008422 RMS     0.000003422

 GradGradGradGradGradGradGradGradGradGradGradGradGradGradGradGradGradGrad
 Berny optimization.
 FormGI is forming the generalized inverse of G from B-inverse, IUseBI=4.
 Internal  Forces:  Max     0.000008502 RMS     0.000002400
 Search for a local minimum.
 Step number   1 out of a maximum of   43
 All quantities printed in internal units (Hartrees-Bohrs-Radians)
 Mixed Optimization -- En-DIIS/RFO-DIIS
 Second derivative matrix not updated -- first step.
 ITU=  0
     Eigenvalues ---    0.01201   0.02205   0.02205   0.03141   0.03141
     Eigenvalues ---    0.03141   0.03141   0.16000   0.16000   0.16000
     Eigenvalues ---    0.16000   0.16000   0.16000   0.22000   0.22000
     Eigenvalues ---    0.36087   0.36525   0.36525   0.36676   0.36676
     Eigenvalues ---    0.36924   0.36924   0.61826   0.61827
 RFO step:  Lambda= 0.00000000D+00 EMin= 1.20082332D-02
 Linear search not attempted -- first point.
 Iteration  1 RMS(Cart)=  0.00005825 RMS(Int)=  0.00000000
 Iteration  2 RMS(Cart)=  0.00000001 RMS(Int)=  0.00000000
 Variable       Old X    -DE/DX   Delta X   Delta X   Delta X     New X
                                 (Linear)    (Quad)   (Total)
    R1        2.03269   0.00000   0.00000   0.00000   0.00000   2.03269
    R2        2.77246  -0.00000   0.00000  -0.00001  -0.00001   2.77246
    R3        2.49523  -0.00000   0.00000  -0.00000  -0.00000   2.49523
    R4        2.03269   0.00000   0.00000   0.00000   0.00000   2.03269
    R5        2.49524  -0.00001   0.00000  -0.00001  -0.00001   2.49523
    R6        2.03037   0.00000   0.00000   0.00000   0.00000   2.03038
    R7        2.02661  -0.00000   0.00000  -0.00000  -0.00000   2.02661
    R8        2.02661  -0.00000   0.00000  -0.00000  -0.00000   2.02661
    R9        2.03037   0.00000   0.00000   0.00000   0.00000   2.03038
    A1        2.02697   0.00000   0.00000   0.00000   0.00000   2.02697
    A2        2.09275   0.00000   0.00000   0.00000   0.00000   2.09275
    A3        2.16346  -0.00000   0.00000  -0.00001  -0.00001   2.16346
    A4        2.02697   0.00000   0.00000   0.00001   0.00001   2.02697
    A5        2.16347  -0.00000   0.00000  -0.00001  -0.00001   2.16346
    A6        2.09275   0.00000   0.00000   0.00000   0.00000   2.09275
    A7        2.12581   0.00000   0.00000   0.00000   0.00000   2.12582
    A8        2.12568  -0.00000   0.00000  -0.00000  -0.00000   2.12568
    A9        2.03169  -0.00000   0.00000  -0.00000  -0.00000   2.03169
   A10        2.12568  -0.00000   0.00000  -0.00000  -0.00000   2.12568
   A11        2.12581   0.00000   0.00000   0.00001   0.00001   2.12582
   A12        2.03170  -0.00000   0.00000  -0.00001  -0.00001   2.03169
    D1        3.14149   0.00000   0.00000   0.00012   0.00012  -3.14157
    D2       -0.00008   0.00000   0.00000   0.00007   0.00007  -0.00000
    D3       -0.00002  -0.00000   0.00000  -0.00002  -0.00002  -0.00004
    D4       -3.14158  -0.00000   0.00000  -0.00007  -0.00007   3.14154
    D5       -0.00000   0.00000   0.00000   0.00002   0.00002   0.00001
    D6       -3.14150  -0.00000   0.00000  -0.00016  -0.00016   3.14152
    D7        3.14150   0.00000   0.00000   0.00017   0.00017  -3.14152
    D8        0.00000  -0.00000   0.00000  -0.00001  -0.00001  -0.00001
    D9        0.00006  -0.00000   0.00000  -0.00010  -0.00010  -0.00004
   D10        3.14155   0.00000   0.00000   0.00008   0.00008  -3.14156
   D11       -3.14150  -0.00000   0.00000  -0.00015  -0.00015   3.14154
   D12       -0.00001   0.00000   0.00000   0.00003   0.00003   0.00001
         Item               Value     Threshold  Converged?
 Maximum Force            0.000009     0.000450     YES
 RMS     Force            0.000002     0.000300     YES
 Maximum Displacement     0.000170     0.001800     YES
 RMS     Displacement     0.000058     0.001200     YES
 Predicted change in Energy=-1.711902D-09
 Optimization completed.
    -- Stationary point found.
                           ----------------------------
                           !   Optimized Parameters   !
                           ! (Angstroms and Degrees)  !
 --------------------------                            --------------------------
 ! Name  Definition              Value          Derivative Info.                !
 --------------------------------------------------------------------------------
 ! R1    R(1,2)                  1.0757         -DE/DX =    0.0                 !
 ! R2    R(1,3)                  1.4671         -DE/DX =    0.0                 !
 ! R3    R(1,7)                  1.3204         -DE/DX =    0.0                 !
 ! R4    R(3,4)                  1.0757         -DE/DX =    0.0                 !
 ! R5    R(3,5)                  1.3204         -DE/DX =    0.0                 !
 ! R6    R(5,6)                  1.0744         -DE/DX =    0.0                 !
 ! R7    R(5,10)                 1.0724         -DE/DX =    0.0                 !
 ! R8    R(7,8)                  1.0724         -DE/DX =    0.0                 !
 ! R9    R(7,9)                  1.0744         -DE/DX =    0.0                 !
 ! A1    A(2,1,3)              116.1368         -DE/DX =    0.0                 !
 ! A2    A(2,1,7)              119.9058         -DE/DX =    0.0                 !
 ! A3    A(3,1,7)              123.9573         -DE/DX =    0.0                 !
 ! A4    A(1,3,4)              116.1366         -DE/DX =    0.0                 !
 ! A5    A(1,3,5)              123.9575         -DE/DX =    0.0                 !
 ! A6    A(4,3,5)              119.9059         -DE/DX =    0.0                 !
 ! A7    A(3,5,6)              121.8001         -DE/DX =    0.0                 !
 ! A8    A(3,5,10)             121.7925         -DE/DX =    0.0                 !
 ! A9    A(6,5,10)             116.4073         -DE/DX =    0.0                 !
 ! A10   A(1,7,8)              121.7926         -DE/DX =    0.0                 !
 ! A11   A(1,7,9)              121.7999         -DE/DX =    0.0                 !
 ! A12   A(8,7,9)              116.4076         -DE/DX =    0.0                 !
 ! D1    D(2,1,3,4)           -180.006          -DE/DX =    0.0                 !
 ! D2    D(2,1,3,5)             -0.0043         -DE/DX =    0.0                 !
 ! D3    D(7,1,3,4)             -0.0009         -DE/DX =    0.0                 !
 ! D4    D(7,1,3,5)            180.0008         -DE/DX =    0.0                 !
 ! D5    D(2,1,7,8)             -0.0003         -DE/DX =    0.0                 !
 ! D6    D(2,1,7,9)            180.0054         -DE/DX =    0.0                 !
 ! D7    D(3,1,7,8)           -180.0055         -DE/DX =    0.0                 !
 ! D8    D(3,1,7,9)              0.0002         -DE/DX =    0.0                 !
 ! D9    D(1,3,5,6)              0.0035         -DE/DX =    0.0                 !
 ! D10   D(1,3,5,10)          -180.0025         -DE/DX =    0.0                 !
 ! D11   D(4,3,5,6)            180.0052         -DE/DX =    0.0                 !
 ! D12   D(4,3,5,10)            -0.0008         -DE/DX =    0.0                 !
 --------------------------------------------------------------------------------
 GradGradGradGradGradGradGradGradGradGradGradGradGradGradGradGradGradGrad

                          Input orientation:                          
 ---------------------------------------------------------------------
 Center     Atomic      Atomic             Coordinates (Angstroms)
 Number     Number       Type             X           Y           Z
 ---------------------------------------------------------------------
      1          6           0       -0.000021    0.401557    0.613896
      2          1           0        0.000039    1.469071    0.481831
      3          6           0       -0.000006   -0.401555   -0.613893
      4          1           0        0.000034   -1.469069   -0.481823
      5          6           0       -0.000007    0.111261   -1.830668
      6          1           0        0.000036    1.172616   -1.997762
      7          6           0       -0.000006   -0.111262    1.830666
      8          1           0        0.000070    0.509279    2.705337
      9          1           0        0.000022   -1.172618    1.997751
     10          1           0        0.000044   -0.509284   -2.705338
 ---------------------------------------------------------------------
                    Distance matrix (angstroms):
                    1          2          3          4          5
     1  C    0.000000
     2  H    1.075652   0.000000
     3  C    1.467125   2.167915   0.000000
     4  H    2.167912   3.092135   1.075652   0.000000
     5  C    2.461740   2.681660   1.320425   2.077697   0.000000
     6  H    2.723103   2.497252   2.095975   3.045746   1.074428
     7  C    1.320421   2.077693   2.461734   2.681650   3.668089
     8  H    2.094214   2.421814   3.441934   3.751247   4.553434
     9  H    2.095968   3.045740   2.723090   2.497232   4.037962
    10  H    3.441939   3.751257   2.094217   2.421819   1.072438
                    6          7          8          9         10
     6  H    0.000000
     7  C    4.037970   0.000000
     8  H    4.749649   1.072437   0.000000
     9  H    4.632952   1.074427   1.824680   0.000000
    10  H    1.824678   4.553432   5.505713   4.749637   0.000000
 Stoichiometry    C4H6
 Framework group  C1[X(C4H6)]
 Deg. of freedom    24
 Full point group                 C1      NOp   1
 Largest Abelian subgroup         C1      NOp   1
 Largest concise Abelian subgroup C1      NOp   1
                         Standard orientation:                         
 ---------------------------------------------------------------------
 Center     Atomic      Atomic             Coordinates (Angstroms)
 Number     Number       Type             X           Y           Z
 ---------------------------------------------------------------------
      1          6           0       -0.613896    0.401557   -0.000021
      2          1           0       -0.481831    1.469071    0.000039
      3          6           0        0.613893   -0.401555   -0.000006
      4          1           0        0.481823   -1.469069    0.000034
      5          6           0        1.830668    0.111261   -0.000007
      6          1           0        1.997762    1.172616    0.000036
      7          6           0       -1.830666   -0.111262   -0.000006
      8          1           0       -2.705337    0.509279    0.000070
      9          1           0       -1.997751   -1.172618    0.000022
     10          1           0        2.705338   -0.509284    0.000044
 ---------------------------------------------------------------------
 Rotational constants (GHZ):          42.7962880           4.4825254           4.0575352
 1\1\GINC-LINUX\FOpt\RHF\3-21G\C4H6\UBUNTU\02-Mar-2023\0\\# opt freq hf
 /3-21g\\Opt and Freq Calculations\\0,1\C,-0.00002133,0.40155733,0.6138
 9592\H,0.00003887,1.46907121,0.48183078\C,-0.00000629,-0.40155546,-0.6
 1389276\H,0.00003428,-1.46906927,-0.48182287\C,-0.00000722,0.1112606,-
 1.83066805\H,0.00003626,1.17261565,-1.99776229\C,-0.00000602,-0.111261
 64,1.83066551\H,0.00006992,0.50927905,2.70533736\H,0.00002157,-1.17261
 77,1.99775079\H,0.00004427,-0.50928389,-2.70533755\\Version=ES64L-G16R
 evA.03\State=1-A\HF=-154.0594566\RMSD=9.371e-09\RMSF=3.422e-06\Dipole=
 0.0000963,0.0000005,0.0000014\Quadrupole=-3.2186141,1.6346831,1.583930
 9,0.0000392,0.0000368,-0.1297424\PG=C01 [X(C4H6)]\\@


 Sacred cows make the best hamburger.
                               -- Mark Twain
 Job cpu time:       0 days  0 hours  0 minutes  1.4 seconds.
 Elapsed time:       0 days  0 hours  0 minutes  1.3 seconds.
 File lengths (MBytes):  RWF=      6 Int=      0 D2E=      0 Chk=      2 Scr=      1
 Normal termination of Gaussian 16 at Thu Mar  2 17:46:51 2023.
 Link1:  Proceeding to internal job step number  2.
 --------------------------------------------------------------
 #N Geom=AllCheck Guess=TCheck SCRF=Check GenChk RHF/3-21G Freq
 --------------------------------------------------------------
 1/10=4,29=7,30=1,38=1,40=1/1,3;
 2/12=2,40=1/2;
 3/5=5,11=1,14=-4,25=1,30=1,70=2,71=2,116=1,140=1/1,2,3;
 4/5=101/1;
 5/5=2,38=6,98=1/2;
 8/6=4,10=90,11=11/1;
 10/13=10,15=4/2;
 11/6=3,8=1,9=11,15=111,16=1/1,2,10;
 10/6=1/2;
 6/7=2,8=2,9=2,10=2,28=1/1;
 7/8=1,10=1,25=1/1,2,3,16;
 1/10=4,30=1/3;
 99//99;
 Structure from the checkpoint file:  "butadiene.chk"
 -------------------------
 Opt and Freq Calculations
 -------------------------
 Charge =  0 Multiplicity = 1
 Redundant internal coordinates found in file.  (old form).
 C,0,-0.00002133,0.40155733,0.61389592
 H,0,0.00003887,1.46907121,0.48183078
 C,0,-0.00000629,-0.40155546,-0.61389276
 H,0,0.00003428,-1.46906927,-0.48182287
 C,0,-0.00000722,0.1112606,-1.83066805
 H,0,0.00003626,1.17261565,-1.99776229
 C,0,-0.00000602,-0.11126164,1.83066551
 H,0,0.00006992,0.50927905,2.70533736
 H,0,0.00002157,-1.1726177,1.99775079
 H,0,0.00004427,-0.50928389,-2.70533755
 Recover connectivity data from disk.

 GradGradGradGradGradGradGradGradGradGradGradGradGradGradGradGradGradGrad
 Berny optimization.
 Initialization pass.
                           ----------------------------
                           !    Initial Parameters    !
                           ! (Angstroms and Degrees)  !
 --------------------------                            --------------------------
 ! Name  Definition              Value          Derivative Info.                !
 --------------------------------------------------------------------------------
 ! R1    R(1,2)                  1.0757         calculate D2E/DX2 analytically  !
 ! R2    R(1,3)                  1.4671         calculate D2E/DX2 analytically  !
 ! R3    R(1,7)                  1.3204         calculate D2E/DX2 analytically  !
 ! R4    R(3,4)                  1.0757         calculate D2E/DX2 analytically  !
 ! R5    R(3,5)                  1.3204         calculate D2E/DX2 analytically  !
 ! R6    R(5,6)                  1.0744         calculate D2E/DX2 analytically  !
 ! R7    R(5,10)                 1.0724         calculate D2E/DX2 analytically  !
 ! R8    R(7,8)                  1.0724         calculate D2E/DX2 analytically  !
 ! R9    R(7,9)                  1.0744         calculate D2E/DX2 analytically  !
 ! A1    A(2,1,3)              116.1368         calculate D2E/DX2 analytically  !
 ! A2    A(2,1,7)              119.9058         calculate D2E/DX2 analytically  !
 ! A3    A(3,1,7)              123.9573         calculate D2E/DX2 analytically  !
 ! A4    A(1,3,4)              116.1366         calculate D2E/DX2 analytically  !
 ! A5    A(1,3,5)              123.9575         calculate D2E/DX2 analytically  !
 ! A6    A(4,3,5)              119.9059         calculate D2E/DX2 analytically  !
 ! A7    A(3,5,6)              121.8001         calculate D2E/DX2 analytically  !
 ! A8    A(3,5,10)             121.7925         calculate D2E/DX2 analytically  !
 ! A9    A(6,5,10)             116.4073         calculate D2E/DX2 analytically  !
 ! A10   A(1,7,8)              121.7926         calculate D2E/DX2 analytically  !
 ! A11   A(1,7,9)              121.7999         calculate D2E/DX2 analytically  !
 ! A12   A(8,7,9)              116.4076         calculate D2E/DX2 analytically  !
 ! D1    D(2,1,3,4)            179.994          calculate D2E/DX2 analytically  !
 ! D2    D(2,1,3,5)             -0.0043         calculate D2E/DX2 analytically  !
 ! D3    D(7,1,3,4)             -0.0009         calculate D2E/DX2 analytically  !
 ! D4    D(7,1,3,5)           -179.9992         calculate D2E/DX2 analytically  !
 ! D5    D(2,1,7,8)             -0.0003         calculate D2E/DX2 analytically  !
 ! D6    D(2,1,7,9)           -179.9946         calculate D2E/DX2 analytically  !
 ! D7    D(3,1,7,8)            179.9945         calculate D2E/DX2 analytically  !
 ! D8    D(3,1,7,9)              0.0002         calculate D2E/DX2 analytically  !
 ! D9    D(1,3,5,6)              0.0035         calculate D2E/DX2 analytically  !
 ! D10   D(1,3,5,10)           179.9975         calculate D2E/DX2 analytically  !
 ! D11   D(4,3,5,6)           -179.9948         calculate D2E/DX2 analytically  !
 ! D12   D(4,3,5,10)            -0.0008         calculate D2E/DX2 analytically  !
 --------------------------------------------------------------------------------
 Trust Radius=3.00D-01 FncErr=1.00D-07 GrdErr=1.00D-07 EigMax=2.50D+02 EigMin=1.00D-04
 Number of steps in this run=      2 maximum allowed number of steps=      2.
 GradGradGradGradGradGradGradGradGradGradGradGradGradGradGradGradGradGrad

                          Input orientation:                          
 ---------------------------------------------------------------------
 Center     Atomic      Atomic             Coordinates (Angstroms)
 Number     Number       Type             X           Y           Z
 ---------------------------------------------------------------------
      1          6           0       -0.000021    0.401557    0.613896
      2          1           0        0.000039    1.469071    0.481831
      3          6           0       -0.000006   -0.401555   -0.613893
      4          1           0        0.000034   -1.469069   -0.481823
      5          6           0       -0.000007    0.111261   -1.830668
      6          1           0        0.000036    1.172616   -1.997762
      7          6           0       -0.000006   -0.111262    1.830666
      8          1           0        0.000070    0.509279    2.705337
      9          1           0        0.000022   -1.172618    1.997751
     10          1           0        0.000044   -0.509284   -2.705338
 ---------------------------------------------------------------------
                    Distance matrix (angstroms):
                    1          2          3          4          5
     1  C    0.000000
     2  H    1.075652   0.000000
     3  C    1.467125   2.167915   0.000000
     4  H    2.167912   3.092135   1.075652   0.000000
     5  C    2.461740   2.681660   1.320425   2.077697   0.000000
     6  H    2.723103   2.497252   2.095975   3.045746   1.074428
     7  C    1.320421   2.077693   2.461734   2.681650   3.668089
     8  H    2.094214   2.421814   3.441934   3.751247   4.553434
     9  H    2.095968   3.045740   2.723090   2.497232   4.037962
    10  H    3.441939   3.751257   2.094217   2.421819   1.072438
                    6          7          8          9         10
     6  H    0.000000
     7  C    4.037970   0.000000
     8  H    4.749649   1.072437   0.000000
     9  H    4.632952   1.074427   1.824680   0.000000
    10  H    1.824678   4.553432   5.505713   4.749637   0.000000
 Stoichiometry    C4H6
 Framework group  C1[X(C4H6)]
 Deg. of freedom    24
 Full point group                 C1      NOp   1
 Largest Abelian subgroup         C1      NOp   1
 Largest concise Abelian subgroup C1      NOp   1
                         Standard orientation:                         
 ---------------------------------------------------------------------
 Center     Atomic      Atomic             Coordinates (Angstroms)
 Number     Number       Type             X           Y           Z
 ---------------------------------------------------------------------
      1          6           0       -0.613896    0.401557   -0.000021
      2          1           0       -0.481831    1.469071    0.000039
      3          6           0        0.613893   -0.401555   -0.000006
      4          1           0        0.481823   -1.469069    0.000034
      5          6           0        1.830668    0.111261   -0.000007
      6          1           0        1.997762    1.172616    0.000036
      7          6           0       -1.830666   -0.111262   -0.000006
      8          1           0       -2.705337    0.509279    0.000070
      9          1           0       -1.997751   -1.172618    0.000022
     10          1           0        2.705338   -0.509284    0.000044
 ---------------------------------------------------------------------
 Rotational constants (GHZ):          42.7962880           4.4825254           4.0575352
 Standard basis: 3-21G (6D, 7F)
 There are    48 symmetry adapted cartesian basis functions of A   symmetry.
 There are    48 symmetry adapted basis functions of A   symmetry.
    48 basis functions,    78 primitive gaussians,    48 cartesian basis functions
    15 alpha electrons       15 beta electrons
       nuclear repulsion energy       104.4796843148 Hartrees.
 NAtoms=   10 NActive=   10 NUniq=   10 SFac= 1.00D+00 NAtFMM=   60 NAOKFM=F Big=F
 Integral buffers will be    131072 words long.
 Raffenetti 1 integral format.
 Two-electron integral symmetry is turned on.
 One-electron integrals computed using PRISM.
 NBasis=    48 RedAO= T EigKep=  8.46D-03  NBF=    48
 NBsUse=    48 1.00D-06 EigRej= -1.00D+00 NBFU=    48
 Initial guess from the checkpoint file:  "butadiene.chk"
 B after Tr=     0.000000    0.000000   -0.000000
         Rot=    1.000000   -0.000000    0.000000   -0.000000 Ang=   0.00 deg.
 Keep R1 ints in memory in canonical form, NReq=1508998.
 Requested convergence on RMS density matrix=1.00D-08 within 128 cycles.
 Requested convergence on MAX density matrix=1.00D-06.
 Requested convergence on             energy=1.00D-06.
 No special actions if energy rises.
 SCF Done:  E(RHF) =  -154.059456577     A.U. after    1 cycles
            NFock=  1  Conv=0.22D-08     -V/T= 2.0020
 Range of M.O.s used for correlation:     1    48
 NBasis=    48 NAE=    15 NBE=    15 NFC=     0 NFV=     0
 NROrb=     48 NOA=    15 NOB=    15 NVA=    33 NVB=    33
          Differentiating once with respect to electric field.
                with respect to dipole field.
          Electric field/nuclear overlap derivatives assumed to be zero.
 Keep R1 ints in memory in canonical form, NReq=1509476.
          There are     3 degrees of freedom in the 1st order CPHF.  IDoFFX=0 NUNeed=     3.
      3 vectors produced by pass  0 Test12= 1.65D-14 3.33D-08 XBig12= 2.44D+01 4.27D+00.
 AX will form     3 AO Fock derivatives at one time.
      3 vectors produced by pass  1 Test12= 1.65D-14 3.33D-08 XBig12= 1.54D+00 3.59D-01.
      3 vectors produced by pass  2 Test12= 1.65D-14 3.33D-08 XBig12= 2.00D-01 1.51D-01.
      3 vectors produced by pass  3 Test12= 1.65D-14 3.33D-08 XBig12= 3.19D-03 1.59D-02.
      3 vectors produced by pass  4 Test12= 1.65D-14 3.33D-08 XBig12= 2.59D-05 1.38D-03.
      3 vectors produced by pass  5 Test12= 1.65D-14 3.33D-08 XBig12= 1.00D-07 7.52D-05.
      3 vectors produced by pass  6 Test12= 1.65D-14 3.33D-08 XBig12= 1.02D-09 9.47D-06.
      3 vectors produced by pass  7 Test12= 1.65D-14 3.33D-08 XBig12= 4.72D-12 5.55D-07.
      2 vectors produced by pass  8 Test12= 1.65D-14 3.33D-08 XBig12= 1.42D-13 1.10D-07.
 InvSVY:  IOpt=1 It=  1 EMax= 1.78D-15
 Solved reduced A of dimension    26 with     3 vectors.
 End of Minotr F.D. properties file   721 does not exist.
 End of Minotr F.D. properties file   722 does not exist.
 End of Minotr F.D. properties file   788 does not exist.
 Symmetrizing basis deriv contribution to polar:
 IMax=3 JMax=2 DiffMx= 0.00D+00
 G2DrvN: will do    11 centers at a time, making    1 passes.
 PxScal for G2LodP:  IOpCl= 0 ISclPx=1 IMOff=     1 NMtTot=     4 NTT=    1176 ScalPx= 2.34D+00
 Calling FoFCou, ICntrl=  3107 FMM=F I1Cent=   0 AccDes= 0.00D+00.
 End of G2Drv F.D. properties file   721 does not exist.
 End of G2Drv F.D. properties file   722 does not exist.
 End of G2Drv F.D. properties file   788 does not exist.
          IDoAtm=1111111111
          Differentiating once with respect to electric field.
                with respect to dipole field.
          Differentiating once with respect to nuclear coordinates.
 Keep R1 ints in memory in canonical form, NReq=1509706.
          There are    33 degrees of freedom in the 1st order CPHF.  IDoFFX=5 NUNeed=    33.
 Will reuse    3 saved solutions.
     27 vectors produced by pass  0 Test12= 1.50D-15 3.03D-09 XBig12= 5.83D-02 9.68D-02.
 AX will form    27 AO Fock derivatives at one time.
     27 vectors produced by pass  1 Test12= 1.50D-15 3.03D-09 XBig12= 2.89D-03 2.77D-02.
     27 vectors produced by pass  2 Test12= 1.50D-15 3.03D-09 XBig12= 3.56D-05 2.41D-03.
     27 vectors produced by pass  3 Test12= 1.50D-15 3.03D-09 XBig12= 1.76D-07 9.83D-05.
     27 vectors produced by pass  4 Test12= 1.50D-15 3.03D-09 XBig12= 1.09D-09 7.46D-06.
     27 vectors produced by pass  5 Test12= 1.50D-15 3.03D-09 XBig12= 5.95D-12 5.18D-07.
     16 vectors produced by pass  6 Test12= 1.50D-15 3.03D-09 XBig12= 1.87D-14 2.64D-08.
 InvSVY:  IOpt=1 It=  1 EMax= 1.78D-15
 Solved reduced A of dimension   178 with    27 vectors.
 Isotropic polarizability for W=    0.000000       40.11 Bohr**3.
 End of Minotr F.D. properties file   721 does not exist.
 End of Minotr F.D. properties file   722 does not exist.
 End of Minotr F.D. properties file   788 does not exist.

 **********************************************************************

            Population analysis using the SCF density.

 **********************************************************************

 Orbital symmetries:
       Occupied  (A) (A) (A) (A) (A) (A) (A) (A) (A) (A) (A) (A)
                 (A) (A) (A)
       Virtual   (A) (A) (A) (A) (A) (A) (A) (A) (A) (A) (A) (A)
                 (A) (A) (A) (A) (A) (A) (A) (A) (A) (A) (A) (A)
                 (A) (A) (A) (A) (A) (A) (A) (A) (A)
 The electronic state is 1-A.
 Alpha  occ. eigenvalues --  -11.17856 -11.17814 -11.16643 -11.16632  -1.09338
 Alpha  occ. eigenvalues --   -1.00728  -0.82189  -0.75580  -0.64967  -0.64024
 Alpha  occ. eigenvalues --   -0.56176  -0.54248  -0.48466  -0.44795  -0.32513
 Alpha virt. eigenvalues --    0.13181   0.27054   0.28637   0.30001   0.30882
 Alpha virt. eigenvalues --    0.35794   0.37567   0.40572   0.55878   0.56138
 Alpha virt. eigenvalues --    0.61073   0.82969   0.90258   0.96963   0.99780
 Alpha virt. eigenvalues --    1.01830   1.10876   1.10916   1.11336   1.11504
 Alpha virt. eigenvalues --    1.12981   1.31580   1.32299   1.37723   1.38069
 Alpha virt. eigenvalues --    1.44389   1.54373   1.59013   1.63007   1.77481
 Alpha virt. eigenvalues --    1.80107   1.97254   2.18607
          Condensed to atoms (all electrons):
               1          2          3          4          5          6
     1  C    5.228467   0.400908   0.323499  -0.040184  -0.090158   0.000366
     2  H    0.400908   0.436898  -0.040183   0.001531   0.002494   0.002149
     3  C    0.323499  -0.040183   5.228464   0.400908   0.528194  -0.057593
     4  H   -0.040184   0.001531   0.400908   0.436899  -0.034421   0.002077
     5  C   -0.090158   0.002494   0.528194  -0.034421   5.206874   0.401127
     6  H    0.000366   0.002149  -0.057593   0.002077   0.401127   0.461509
     7  C    0.528192  -0.034422  -0.090159   0.002494   0.001726   0.000115
     8  H   -0.049269  -0.002141   0.002548   0.000004  -0.000062  -0.000001
     9  H   -0.057594   0.002077   0.000366   0.002149   0.000115   0.000006
    10  H    0.002548   0.000004  -0.049269  -0.002141   0.395999  -0.020717
               7          8          9         10
     1  C    0.528192  -0.049269  -0.057594   0.002548
     2  H   -0.034422  -0.002141   0.002077   0.000004
     3  C   -0.090159   0.002548   0.000366  -0.049269
     4  H    0.002494   0.000004   0.002149  -0.002141
     5  C    0.001726  -0.000062   0.000115   0.395999
     6  H    0.000115  -0.000001   0.000006  -0.020717
     7  C    5.206876   0.395999   0.401127  -0.000062
     8  H    0.395999   0.456620  -0.020717   0.000000
     9  H    0.401127  -0.020717   0.461509  -0.000001
    10  H   -0.000062   0.000000  -0.000001   0.456621
 Mulliken charges:
               1
     1  C   -0.246776
     2  H    0.230684
     3  C   -0.246776
     4  H    0.230683
     5  C   -0.411887
     6  H    0.210962
     7  C   -0.411887
     8  H    0.217017
     9  H    0.210962
    10  H    0.217017
 Sum of Mulliken charges =   0.00000
 Mulliken charges with hydrogens summed into heavy atoms:
               1
     1  C   -0.016093
     3  C   -0.016092
     5  C    0.016092
     7  C    0.016093
 APT charges:
               1
     1  C    0.027010
     2  H    0.026462
     3  C    0.027011
     4  H    0.026462
     5  C   -0.136561
     6  H    0.046453
     7  C   -0.136560
     8  H    0.036636
     9  H    0.046452
    10  H    0.036636
 Sum of APT charges =   0.00000
 APT charges with hydrogens summed into heavy atoms:
               1
     1  C    0.053472
     3  C    0.053473
     5  C   -0.053473
     7  C   -0.053472
 Electronic spatial extent (au):  <R**2>=            332.4540
 Charge=              0.0000 electrons
 Dipole moment (field-independent basis, Debye):
    X=             -0.0000    Y=              0.0000    Z=              0.0002  Tot=              0.0002
 Quadrupole moment (field-independent basis, Debye-Ang):
   XX=            -22.8549   YY=            -22.7866   ZZ=            -29.3145
   XY=              0.1745   XZ=             -0.0000   YZ=              0.0001
 Traceless Quadrupole moment (field-independent basis, Debye-Ang):
   XX=              2.1304   YY=              2.1987   ZZ=             -4.3291
   XY=              0.1745   XZ=             -0.0000   YZ=              0.0001
 Octapole moment (field-independent basis, Debye-Ang**2):
  XXX=              0.0000  YYY=              0.0000  ZZZ=              0.0003  XYY=             -0.0000
  XXY=              0.0000  XXZ=              0.0013  XZZ=             -0.0000  YZZ=              0.0000
  YYZ=              0.0005  XYZ=             -0.0001
 Hexadecapole moment (field-independent basis, Debye-Ang**3):
 XXXX=           -327.8018 YYYY=            -58.6403 ZZZZ=            -30.9214 XXXY=             -4.9874
 XXXZ=             -0.0005 YYYX=              2.1714 YYYZ=              0.0001 ZZZX=             -0.0001
 ZZZY=              0.0001 XXYY=            -64.9571 XXZZ=            -73.6614 YYZZ=            -17.1548
 XXYZ=              0.0002 YYXZ=             -0.0000 ZZXY=              0.3515
 N-N= 1.044796843148D+02 E-N=-5.667834502613D+02  KE= 1.537445153404D+02
  Exact polarizability:  73.640   8.917  35.996  -0.000   0.000  10.686
 Approx polarizability:  57.318   8.395  31.190  -0.000  -0.000   9.801
 Calling FoFJK, ICntrl=    100127 FMM=F ISym2X=0 I1Cent= 0 IOpClX= 0 NMat=1 NMatS=1 NMatT=0.
 Full mass-weighted force constant matrix:
 Low frequencies ---   -1.0524   -0.0005   -0.0005    0.0002    1.3856    1.5356
 Low frequencies ---  165.1018  333.3951  577.6601
 Diagonal vibrational polarizability:
        0.8594450       0.1647891       5.4837394
 Diagonal vibrational hyperpolarizability:
        0.0000157       0.0000036       0.0087880
 Harmonic frequencies (cm**-1), IR intensities (KM/Mole), Raman scattering
 activities (A**4/AMU), depolarization ratios for plane and unpolarized
 incident light, reduced masses (AMU), force constants (mDyne/A),
 and normal coordinates:
                      1                      2                      3
                      A                      A                      A
 Frequencies --    165.1018               333.3951               577.6601
 Red. masses --      2.5053                 2.1739                 2.8188
 Frc consts  --      0.0402                 0.1424                 0.5542
 IR Inten    --      0.1969                 2.4139                 0.0000
 Raman Activ --      0.0000                 0.0000                10.7649
 Depolar (P) --      0.2417                 0.7406                 0.3191
 Depolar (U) --      0.3893                 0.8510                 0.4839
  Atom  AN      X      Y      Z        X      Y      Z        X      Y      Z
     1   6     0.00  -0.00   0.19    -0.06   0.17  -0.00    -0.13  -0.12  -0.00
     2   1    -0.00  -0.00   0.43    -0.22   0.18  -0.00    -0.25  -0.10   0.00
     3   6     0.00  -0.00   0.19    -0.06   0.17   0.00     0.13   0.12  -0.00
     4   1     0.00   0.00   0.43    -0.22   0.18   0.00     0.25   0.10   0.00
     5   6     0.00  -0.00  -0.17     0.06  -0.13  -0.00     0.23  -0.01   0.00
     6   1     0.00   0.00  -0.44     0.38  -0.19  -0.00     0.53  -0.06  -0.00
     7   6    -0.00   0.00  -0.17     0.06  -0.13   0.00    -0.23   0.01   0.00
     8   1    -0.00  -0.00  -0.23    -0.13  -0.40  -0.00    -0.06   0.25   0.00
     9   1    -0.00  -0.00  -0.44     0.38  -0.19   0.00    -0.53   0.06  -0.00
    10   1     0.00   0.00  -0.23    -0.13  -0.40   0.00     0.06  -0.25   0.00
                      4                      5                      6
                      A                      A                      A
 Frequencies --    587.9274               869.1371               949.9379
 Red. masses --      1.0940                 1.5781                 2.0656
 Frc consts  --      0.2228                 0.7024                 1.0982
 IR Inten    --     18.0911                 0.0000                 0.0000
 Raman Activ --      0.0000                31.7329                 1.5671
 Depolar (P) --      0.4435                 0.7500                 0.7374
 Depolar (U) --      0.6145                 0.8571                 0.8489
  Atom  AN      X      Y      Z        X      Y      Z        X      Y      Z
     1   6     0.00   0.00  -0.06    -0.00   0.00  -0.16    -0.11   0.15  -0.00
     2   1     0.00  -0.00   0.31    -0.00  -0.00   0.07    -0.00   0.14  -0.00
     3   6    -0.00  -0.00  -0.06    -0.00   0.00   0.16     0.11  -0.15   0.00
     4   1    -0.00  -0.00   0.31    -0.00  -0.00  -0.07     0.00  -0.14  -0.00
     5   6    -0.00  -0.00   0.02    -0.00   0.00  -0.01     0.11  -0.04   0.00
     6   1    -0.00   0.00  -0.37     0.00  -0.00   0.31    -0.34   0.04  -0.00
     7   6     0.00  -0.00   0.02    -0.00   0.00   0.01    -0.11   0.04   0.00
     8   1     0.00  -0.00   0.51     0.00  -0.00   0.61    -0.41  -0.38   0.00
     9   1     0.00  -0.00  -0.37    -0.00  -0.00  -0.31     0.34  -0.04  -0.00
    10   1    -0.00   0.00   0.51     0.00  -0.00  -0.61     0.41   0.38  -0.00
                      7                      8                      9
                      A                      A                      A
 Frequencies --   1097.0331              1112.4554              1134.8188
 Red. masses --      1.1559                 1.3058                 1.1963
 Frc consts  --      0.8196                 0.9521                 0.9077
 IR Inten    --      0.0000               157.8904                 4.4002
 Raman Activ --      2.0086                 0.0000                 0.0000
 Depolar (P) --      0.7500                 0.1026                 0.7500
 Depolar (U) --      0.8571                 0.1862                 0.8571
  Atom  AN      X      Y      Z        X      Y      Z        X      Y      Z
     1   6    -0.00   0.00  -0.02    -0.00   0.00   0.02     0.01  -0.04   0.00
     2   1    -0.00  -0.00   0.36     0.00  -0.00   0.12     0.36  -0.08  -0.00
     3   6    -0.00   0.00   0.02     0.00  -0.00   0.02     0.01  -0.04  -0.00
     4   1    -0.00  -0.00  -0.36     0.00  -0.00   0.12     0.36  -0.08   0.00
     5   6     0.00  -0.00   0.08     0.00   0.00  -0.11    -0.04   0.07   0.00
     6   1    -0.00   0.00  -0.57    -0.00  -0.00   0.55     0.41  -0.01  -0.00
     7   6     0.00  -0.00  -0.08    -0.00   0.00  -0.11    -0.04   0.07  -0.00
     8   1     0.00   0.00   0.21     0.00  -0.00   0.42    -0.30  -0.31   0.00
     9   1    -0.00   0.00   0.57     0.00   0.00   0.55     0.41  -0.01   0.00
    10   1     0.00   0.00  -0.21    -0.00  -0.00   0.42    -0.30  -0.31  -0.00
                     10                     11                     12
                      A                      A                      A
 Frequencies --   1159.2907              1179.6529              1338.9692
 Red. masses --      1.4254                 1.1373                 1.8855
 Frc consts  --      1.1287                 0.9324                 1.9917
 IR Inten    --      0.0000                23.1376                 0.0000
 Raman Activ --     26.9614                 0.0000                40.5904
 Depolar (P) --      0.7500                 0.5258                 0.4978
 Depolar (U) --      0.8571                 0.6892                 0.6647
  Atom  AN      X      Y      Z        X      Y      Z        X      Y      Z
     1   6    -0.00   0.00   0.11    -0.00   0.00  -0.07     0.07  -0.17  -0.00
     2   1    -0.00   0.00  -0.53    -0.00  -0.00   0.59     0.44  -0.22   0.00
     3   6    -0.00   0.00  -0.11     0.00  -0.00  -0.07    -0.07   0.17  -0.00
     4   1    -0.00   0.00   0.53     0.00   0.00   0.59    -0.44   0.22   0.00
     5   6     0.00  -0.00   0.09    -0.00   0.00   0.03     0.06  -0.07   0.00
     6   1    -0.00   0.00  -0.06     0.00  -0.00   0.22    -0.31   0.00   0.00
     7   6     0.00  -0.00  -0.09     0.00  -0.00   0.03    -0.06   0.07   0.00
     8   1     0.00   0.00   0.44    -0.00   0.00  -0.31    -0.26  -0.24  -0.00
     9   1    -0.00   0.00   0.06     0.00   0.00   0.22     0.31  -0.00   0.00
    10   1     0.00   0.00  -0.44    -0.00  -0.00  -0.31     0.26   0.24  -0.00
                     13                     14                     15
                      A                      A                      A
 Frequencies --   1460.5005              1474.4237              1576.2309
 Red. masses --      1.3001                 1.2923                 1.2843
 Frc consts  --      1.6339                 1.6552                 1.8799
 IR Inten    --      0.0000                 2.3462                 3.2108
 Raman Activ --     72.0744                 0.0000                 0.0000
 Depolar (P) --      0.3919                 0.4130                 0.6645
 Depolar (U) --      0.5631                 0.5846                 0.7984
  Atom  AN      X      Y      Z        X      Y      Z        X      Y      Z
     1   6    -0.02  -0.07   0.00    -0.01   0.08  -0.00    -0.11  -0.02   0.00
     2   1    -0.59  -0.00   0.00     0.63   0.01  -0.00     0.16  -0.06  -0.00
     3   6     0.02   0.07  -0.00    -0.01   0.08   0.00    -0.11  -0.02  -0.00
     4   1     0.59   0.00   0.00     0.63   0.01   0.00     0.16  -0.06   0.00
     5   6    -0.04  -0.08   0.00    -0.03  -0.08   0.00     0.03  -0.01  -0.00
     6   1    -0.37  -0.04   0.00    -0.29  -0.04   0.00     0.43  -0.05   0.00
     7   6     0.04   0.08   0.00    -0.03  -0.08  -0.00     0.03  -0.01   0.00
     8   1     0.02   0.04  -0.00     0.04   0.04   0.00     0.33   0.39  -0.00
     9   1     0.37   0.04  -0.00    -0.29  -0.04   0.00     0.43  -0.05  -0.00
    10   1    -0.02  -0.04  -0.00     0.04   0.04  -0.00     0.33   0.39   0.00
                     16                     17                     18
                      A                      A                      A
 Frequencies --   1636.2813              1809.3491              1872.9324
 Red. masses --      1.1824                 3.1873                 4.2029
 Frc consts  --      1.8652                 6.1477                 8.6865
 IR Inten    --      0.0000                16.1082                 0.0000
 Raman Activ --     58.7064                 0.0000               272.6876
 Depolar (P) --      0.4359                 0.2658                 0.2658
 Depolar (U) --      0.6071                 0.4199                 0.4199
  Atom  AN      X      Y      Z        X      Y      Z        X      Y      Z
     1   6    -0.08   0.00   0.00    -0.20  -0.05   0.00     0.30   0.07  -0.00
     2   1     0.25  -0.03  -0.00     0.14  -0.13  -0.00    -0.35   0.18   0.00
     3   6     0.08  -0.00   0.00    -0.20  -0.05  -0.00    -0.30  -0.07  -0.00
     4   1    -0.25   0.03  -0.00     0.14  -0.13   0.00     0.35  -0.18   0.00
     5   6     0.03   0.03   0.00     0.23   0.08   0.00     0.21   0.09   0.00
     6   1    -0.41   0.09  -0.00    -0.40   0.21  -0.00    -0.27   0.20  -0.00
     7   6    -0.03  -0.03   0.00     0.23   0.08  -0.00    -0.21  -0.09   0.00
     8   1     0.29   0.41  -0.00    -0.08  -0.39   0.00     0.02   0.30  -0.00
     9   1     0.41  -0.09  -0.00    -0.40   0.21   0.00     0.27  -0.20  -0.00
    10   1    -0.29  -0.41  -0.00    -0.08  -0.39  -0.00    -0.02  -0.30  -0.00
                     19                     20                     21
                      A                      A                      A
 Frequencies --   3310.2716              3316.2488              3324.0931
 Red. masses --      1.0679                 1.0611                 1.0850
 Frc consts  --      6.8945                 6.8752                 7.0636
 IR Inten    --      0.0000                16.9630                 0.0000
 Raman Activ --     29.8621                 0.0000               238.5244
 Depolar (P) --      0.4124                 0.7029                 0.1875
 Depolar (U) --      0.5839                 0.8255                 0.3157
  Atom  AN      X      Y      Z        X      Y      Z        X      Y      Z
     1   6     0.00   0.04   0.00     0.00  -0.01  -0.00     0.01   0.04   0.00
     2   1    -0.06  -0.49  -0.00     0.02   0.17   0.00    -0.06  -0.48  -0.00
     3   6    -0.00  -0.04   0.00     0.00  -0.01   0.00    -0.01  -0.04   0.00
     4   1     0.06   0.49  -0.00     0.02   0.17  -0.00     0.06   0.48  -0.00
     5   6    -0.03  -0.01  -0.00    -0.04  -0.02  -0.00     0.03   0.03   0.00
     6   1     0.05   0.36   0.00     0.08   0.53   0.00    -0.07  -0.44  -0.00
     7   6     0.03   0.01  -0.00    -0.04  -0.02   0.00    -0.03  -0.03   0.00
     8   1    -0.28   0.21   0.00     0.35  -0.26  -0.00     0.19  -0.14  -0.00
     9   1    -0.05  -0.36   0.00     0.08   0.53  -0.00     0.07   0.44  -0.00
    10   1     0.28  -0.21   0.00     0.35  -0.26   0.00    -0.19   0.14  -0.00
                     22                     23                     24
                      A                      A                      A
 Frequencies --   3328.6984              3395.6604              3397.0781
 Red. masses --      1.0941                 1.1139                 1.1135
 Frc consts  --      7.1424                 7.5677                 7.5709
 IR Inten    --     11.4070                 0.0001                35.3321
 Raman Activ --      0.0000               162.2545                 0.0003
 Depolar (P) --      0.2140                 0.6147                 0.6142
 Depolar (U) --      0.3526                 0.7614                 0.7610
  Atom  AN      X      Y      Z        X      Y      Z        X      Y      Z
     1   6    -0.01  -0.06  -0.00    -0.00  -0.01  -0.00     0.00   0.01   0.00
     2   1     0.08   0.66   0.00     0.02   0.10   0.00    -0.02  -0.15  -0.00
     3   6    -0.01  -0.06   0.00     0.00   0.01  -0.00     0.00   0.01  -0.00
     4   1     0.08   0.66  -0.00    -0.02  -0.10   0.00    -0.02  -0.15   0.00
     5   6     0.01   0.02   0.00    -0.03   0.06  -0.00    -0.03   0.06  -0.00
     6   1    -0.03  -0.22  -0.00    -0.07  -0.40  -0.00    -0.07  -0.39  -0.00
     7   6     0.01   0.02  -0.00     0.03  -0.06  -0.00    -0.03   0.06   0.00
     8   1     0.01  -0.00  -0.00    -0.47   0.32   0.00     0.46  -0.32  -0.00
     9   1    -0.03  -0.22   0.00     0.07   0.40  -0.00    -0.07  -0.39   0.00
    10   1     0.01  -0.00   0.00     0.47  -0.32   0.00     0.46  -0.32   0.00

 -------------------
 - Thermochemistry -
 -------------------
 Temperature   298.150 Kelvin.  Pressure   1.00000 Atm.
 Atom     1 has atomic number  6 and mass  12.00000
 Atom     2 has atomic number  1 and mass   1.00783
 Atom     3 has atomic number  6 and mass  12.00000
 Atom     4 has atomic number  1 and mass   1.00783
 Atom     5 has atomic number  6 and mass  12.00000
 Atom     6 has atomic number  1 and mass   1.00783
 Atom     7 has atomic number  6 and mass  12.00000
 Atom     8 has atomic number  1 and mass   1.00783
 Atom     9 has atomic number  1 and mass   1.00783
 Atom    10 has atomic number  1 and mass   1.00783
 Molecular mass:    54.04695 amu.
 Principal axes and moments of inertia in atomic units:
                           1         2         3
     Eigenvalues --    42.17051 402.61706 444.78757
           X            0.99999   0.00505  -0.00000
           Y           -0.00505   0.99999   0.00000
           Z            0.00000  -0.00000   1.00000
 This molecule is an asymmetric top.
 Rotational symmetry number  1.
 Rotational temperatures (Kelvin)      2.05390     0.21513     0.19473
 Rotational constants (GHZ):          42.79629     4.48253     4.05754
 Zero-point vibrational energy     241688.4 (Joules/Mol)
                                   57.76492 (Kcal/Mol)
 Warning -- explicit consideration of   4 degrees of freedom as
           vibrations may cause significant error
 Vibrational temperatures:    237.54   479.68   831.12   845.90  1250.49
          (Kelvin)           1366.75  1578.39  1600.58  1632.75  1667.96
                             1697.26  1926.48  2101.33  2121.37  2267.84
                             2354.24  2603.25  2694.73  4762.74  4771.34
                             4782.63  4789.25  4885.60  4887.64
 
 Zero-point correction=                           0.092054 (Hartree/Particle)
 Thermal correction to Energy=                    0.096467
 Thermal correction to Enthalpy=                  0.097411
 Thermal correction to Gibbs Free Energy=         0.065705
 Sum of electronic and zero-point Energies=           -153.967402
 Sum of electronic and thermal Energies=              -153.962989
 Sum of electronic and thermal Enthalpies=            -153.962045
 Sum of electronic and thermal Free Energies=         -153.993751
 
                     E (Thermal)             CV                S
                      KCal/Mol        Cal/Mol-Kelvin    Cal/Mol-Kelvin
 Total                   60.534             14.272             66.731
 Electronic               0.000              0.000              0.000
 Translational            0.889              2.981             37.884
 Rotational               0.889              2.981             23.539
 Vibrational             58.757              8.311              5.308
 Vibration     1          0.623              1.885              2.491
 Vibration     2          0.715              1.609              1.244
 Vibration     3          0.934              1.080              0.490
 Vibration     4          0.945              1.058              0.471
                       Q            Log10(Q)             Ln(Q)
 Total Bot       0.599315D-30        -30.222345        -69.589521
 Total V=0       0.131715D+13         12.119636         27.906493
 Vib (Bot)       0.123359D-41        -41.908828        -96.498643
 Vib (Bot)    1  0.122254D+01          0.087263          0.200931
 Vib (Bot)    2  0.559260D+00         -0.252386         -0.581141
 Vib (Bot)    3  0.264409D+00         -0.577723         -1.330256
 Vib (Bot)    4  0.257124D+00         -0.589857         -1.358196
 Vib (V=0)       0.271115D+01          0.433153          0.997371
 Vib (V=0)    1  0.182083D+01          0.260270          0.599295
 Vib (V=0)    2  0.125018D+01          0.096973          0.223288
 Vib (V=0)    3  0.106561D+01          0.027597          0.063545
 Vib (V=0)    4  0.106224D+01          0.026222          0.060379
 Electronic      0.100000D+01          0.000000          0.000000
 Translational   0.156175D+08          7.193611         16.563901
 Rotational      0.311080D+05          4.492872         10.345221
 ***** Axes restored to original set *****
 -------------------------------------------------------------------
 Center     Atomic                   Forces (Hartrees/Bohr)
 Number     Number              X              Y              Z
 -------------------------------------------------------------------
      1        6           0.000006782   -0.000000688   -0.000000789
      2        1          -0.000003936    0.000000855    0.000000015
      3        6          -0.000002055    0.000002812   -0.000004157
      4        1          -0.000002764   -0.000000538   -0.000000576
      5        6           0.000008422   -0.000002888    0.000008154
      6        1          -0.000004412    0.000000308   -0.000000299
      7        6           0.000006482    0.000000906   -0.000003816
      8        1          -0.000003304   -0.000000493   -0.000000042
      9        1          -0.000003252   -0.000000551    0.000001111
     10        1          -0.000001964    0.000000276    0.000000398
 -------------------------------------------------------------------
 Cartesian Forces:  Max     0.000008422 RMS     0.000003421
 FormGI is forming the generalized inverse of G from B-inverse, IUseBI=4.

 GradGradGradGradGradGradGradGradGradGradGradGradGradGradGradGradGradGrad
 Berny optimization.
 Internal  Forces:  Max     0.000008500 RMS     0.000002399
 Search for a local minimum.
 Step number   1 out of a maximum of    2
 All quantities printed in internal units (Hartrees-Bohrs-Radians)
 Second derivative matrix not updated -- analytic derivatives used.
 ITU=  0
     Eigenvalues ---    0.00628   0.02917   0.03186   0.03607   0.03949
     Eigenvalues ---    0.05220   0.05338   0.12687   0.12816   0.13549
     Eigenvalues ---    0.13924   0.14685   0.16175   0.18761   0.22735
     Eigenvalues ---    0.36385   0.39130   0.39281   0.39632   0.39813
     Eigenvalues ---    0.40185   0.40226   0.72704   0.73053
 Angle between quadratic step and forces=  46.53 degrees.
 Linear search not attempted -- first point.
 Iteration  1 RMS(Cart)=  0.00002925 RMS(Int)=  0.00000001
 Iteration  2 RMS(Cart)=  0.00000001 RMS(Int)=  0.00000001
 Variable       Old X    -DE/DX   Delta X   Delta X   Delta X     New X
                                 (Linear)    (Quad)   (Total)
    R1        2.03269   0.00000   0.00000   0.00000   0.00000   2.03269
    R2        2.77246  -0.00000   0.00000  -0.00001  -0.00001   2.77246
    R3        2.49523  -0.00000   0.00000  -0.00000  -0.00000   2.49523
    R4        2.03269   0.00000   0.00000   0.00000   0.00000   2.03269
    R5        2.49524  -0.00001   0.00000  -0.00001  -0.00001   2.49523
    R6        2.03037   0.00000   0.00000   0.00000   0.00000   2.03038
    R7        2.02661  -0.00000   0.00000  -0.00000  -0.00000   2.02661
    R8        2.02661  -0.00000   0.00000  -0.00000  -0.00000   2.02661
    R9        2.03037   0.00000   0.00000   0.00000   0.00000   2.03038
    A1        2.02697   0.00000   0.00000   0.00000   0.00000   2.02697
    A2        2.09275   0.00000   0.00000   0.00000   0.00000   2.09275
    A3        2.16346  -0.00000   0.00000  -0.00000  -0.00000   2.16346
    A4        2.02697   0.00000   0.00000   0.00001   0.00001   2.02697
    A5        2.16347  -0.00000   0.00000  -0.00001  -0.00001   2.16346
    A6        2.09275   0.00000   0.00000  -0.00000  -0.00000   2.09275
    A7        2.12581   0.00000   0.00000   0.00000   0.00000   2.12582
    A8        2.12568  -0.00000   0.00000   0.00000   0.00000   2.12568
    A9        2.03169  -0.00000   0.00000  -0.00000  -0.00000   2.03169
   A10        2.12568  -0.00000   0.00000   0.00000   0.00000   2.12568
   A11        2.12581   0.00000   0.00000   0.00001   0.00001   2.12582
   A12        2.03170  -0.00000   0.00000  -0.00001  -0.00001   2.03169
    D1        3.14149   0.00000   0.00000   0.00010   0.00010   3.14159
    D2       -0.00008   0.00000   0.00000   0.00008   0.00008   0.00000
    D3       -0.00002  -0.00000   0.00000   0.00002   0.00002   0.00000
    D4       -3.14158  -0.00000   0.00000  -0.00001  -0.00001  -3.14159
    D5       -0.00000   0.00000   0.00000   0.00000   0.00000  -0.00000
    D6       -3.14150  -0.00000   0.00000  -0.00009  -0.00009  -3.14159
    D7        3.14150   0.00000   0.00000   0.00010   0.00010   3.14159
    D8        0.00000  -0.00000   0.00000  -0.00000  -0.00000   0.00000
    D9        0.00006  -0.00000   0.00000  -0.00006  -0.00006  -0.00000
   D10        3.14155   0.00000   0.00000   0.00004   0.00004   3.14159
   D11       -3.14150  -0.00000   0.00000  -0.00009  -0.00009   3.14159
   D12       -0.00001   0.00000   0.00000   0.00001   0.00001   0.00000
         Item               Value     Threshold  Converged?
 Maximum Force            0.000008     0.000450     YES
 RMS     Force            0.000002     0.000300     YES
 Maximum Displacement     0.000084     0.001800     YES
 RMS     Displacement     0.000029     0.001200     YES
 Predicted change in Energy=-1.057633D-09
 Optimization completed.
    -- Stationary point found.
                           ----------------------------
                           !   Optimized Parameters   !
                           ! (Angstroms and Degrees)  !
 --------------------------                            --------------------------
 ! Name  Definition              Value          Derivative Info.                !
 --------------------------------------------------------------------------------
 ! R1    R(1,2)                  1.0757         -DE/DX =    0.0                 !
 ! R2    R(1,3)                  1.4671         -DE/DX =    0.0                 !
 ! R3    R(1,7)                  1.3204         -DE/DX =    0.0                 !
 ! R4    R(3,4)                  1.0757         -DE/DX =    0.0                 !
 ! R5    R(3,5)                  1.3204         -DE/DX =    0.0                 !
 ! R6    R(5,6)                  1.0744         -DE/DX =    0.0                 !
 ! R7    R(5,10)                 1.0724         -DE/DX =    0.0                 !
 ! R8    R(7,8)                  1.0724         -DE/DX =    0.0                 !
 ! R9    R(7,9)                  1.0744         -DE/DX =    0.0                 !
 ! A1    A(2,1,3)              116.1368         -DE/DX =    0.0                 !
 ! A2    A(2,1,7)              119.9058         -DE/DX =    0.0                 !
 ! A3    A(3,1,7)              123.9573         -DE/DX =    0.0                 !
 ! A4    A(1,3,4)              116.1366         -DE/DX =    0.0                 !
 ! A5    A(1,3,5)              123.9575         -DE/DX =    0.0                 !
 ! A6    A(4,3,5)              119.9059         -DE/DX =    0.0                 !
 ! A7    A(3,5,6)              121.8001         -DE/DX =    0.0                 !
 ! A8    A(3,5,10)             121.7925         -DE/DX =    0.0                 !
 ! A9    A(6,5,10)             116.4073         -DE/DX =    0.0                 !
 ! A10   A(1,7,8)              121.7926         -DE/DX =    0.0                 !
 ! A11   A(1,7,9)              121.7999         -DE/DX =    0.0                 !
 ! A12   A(8,7,9)              116.4076         -DE/DX =    0.0                 !
 ! D1    D(2,1,3,4)            179.994          -DE/DX =    0.0                 !
 ! D2    D(2,1,3,5)             -0.0043         -DE/DX =    0.0                 !
 ! D3    D(7,1,3,4)             -0.0009         -DE/DX =    0.0                 !
 ! D4    D(7,1,3,5)           -179.9992         -DE/DX =    0.0                 !
 ! D5    D(2,1,7,8)             -0.0003         -DE/DX =    0.0                 !
 ! D6    D(2,1,7,9)           -179.9946         -DE/DX =    0.0                 !
 ! D7    D(3,1,7,8)            179.9945         -DE/DX =    0.0                 !
 ! D8    D(3,1,7,9)              0.0002         -DE/DX =    0.0                 !
 ! D9    D(1,3,5,6)              0.0035         -DE/DX =    0.0                 !
 ! D10   D(1,3,5,10)           179.9975         -DE/DX =    0.0                 !
 ! D11   D(4,3,5,6)            180.0052         -DE/DX =    0.0                 !
 ! D12   D(4,3,5,10)            -0.0008         -DE/DX =    0.0                 !
 --------------------------------------------------------------------------------
 GradGradGradGradGradGradGradGradGradGradGradGradGradGradGradGradGradGrad


 ----------------------------------------------------------------------

 Electric dipole moment (input orientation):
 (Debye = 10**-18 statcoulomb cm , SI units = C m)
                  (au)            (Debye)         (10**-30 SI)
   Tot        0.962552D-04      0.244656D-03      0.816085D-03
   x          0.962552D-04      0.244656D-03      0.816085D-03
   y          0.000000D+00      0.000000D+00      0.000000D+00
   z          0.000000D+00      0.000000D+00      0.000000D+00

 Dipole polarizability, Alpha (input orientation).
 (esu units = cm**3 , SI units = C**2 m**2 J**-1)
 Alpha(0;0):
               (au)            (10**-24 esu)      (10**-40 SI)
   iso        0.401073D+02      0.594329D+01      0.661280D+01
   aniso      0.570003D+02      0.844657D+01      0.939808D+01
   xx         0.106855D+02      0.158343D+01      0.176181D+01
   yx         0.338485D-04      0.501583D-05      0.558086D-05
   yy         0.359960D+02      0.533406D+01      0.593494D+01
   zx         0.391371D-03      0.579951D-04      0.645283D-04
   zy        -0.891669D+01     -0.132132D+01     -0.147016D+01
   zz         0.736403D+02      0.109124D+02      0.121416D+02

 First dipole hyperpolarizability, Beta (input orientation).
 ||, _|_  parallel and perpendicular components, (z) with respect to z axis,
 vector components x,y,z.  Values do not include the 1/n! factor of 1/2.
 (esu units = statvolt**-1 cm**4 , SI units = C**3 m**3 J**-2)
 Beta(0;0,0):
               (au)            (10**-30 esu)      (10**-50 SI)
   || (z)     0.372562D-04      0.321864D-06      0.119457D-06
   _|_(z)     0.124187D-04      0.107288D-06      0.398189D-07
   x          0.135031D-01      0.116656D-03      0.432958D-04
   y         -0.203550D-03     -0.175851D-05     -0.652655D-06
   z          0.186281D-03      0.160932D-05      0.597284D-06
   ||         0.270118D-02      0.233361D-04      0.866097D-05
   xxx       -0.131121D-02     -0.113278D-04     -0.420421D-05
   xxy        0.000000D+00      0.000000D+00      0.000000D+00
   yxy        0.424195D-02      0.366472D-04      0.136012D-04
   yyy        0.000000D+00      0.000000D+00      0.000000D+00
   xxz        0.175485D-04      0.151605D-06      0.562669D-07
   yxz        0.118437D-02      0.102320D-04      0.379751D-05
   yyz       -0.165836D-03     -0.143270D-05     -0.531731D-06
   zxz        0.157029D-02      0.135661D-04      0.503491D-05
   zyz       -0.696286D-04     -0.601537D-06     -0.223255D-06
   zzz        0.210381D-03      0.181753D-05      0.674559D-06

 ----------------------------------------------------------------------

 Dipole orientation:
     6         -1.16370815          0.75299087          0.02090372
     1         -0.92414849          2.77150194          0.02745859
     6          1.16370139         -0.75298711         -0.02095580
     1          0.92413557         -2.77149903         -0.02732013
     6          3.45800007          0.22761396         -0.05005424
     1          3.76380418          2.23481928         -0.04456709
     6         -3.45799563         -0.22761578          0.05002914
     1         -5.11648313          0.93670857          0.08047264
     1         -3.76378082         -2.23482359          0.04467602
     1          5.11648673         -0.93671878         -0.08025693

 Electric dipole moment (dipole orientation):
 (Debye = 10**-18 statcoulomb cm , SI units = C m)
                  (au)            (Debye)         (10**-30 SI)
   Tot        0.962669D-04      0.244686D-03      0.816185D-03
   x          0.000000D+00      0.000000D+00      0.000000D+00
   y          0.000000D+00      0.000000D+00      0.000000D+00
   z          0.962669D-04      0.244686D-03      0.816185D-03

 Dipole polarizability, Alpha (dipole orientation).
 (esu units = cm**3 , SI units = C**2 m**2 J**-1)
 Alpha(0;0):
               (au)            (10**-24 esu)      (10**-40 SI)
   iso        0.401073D+02      0.594329D+01      0.661280D+01
   aniso      0.570003D+02      0.844657D+01      0.939808D+01
   xx         0.735374D+02      0.108971D+02      0.121247D+02
   yx         0.910597D+01      0.134937D+01      0.150137D+01
   yy         0.360859D+02      0.534737D+01      0.594975D+01
   zx        -0.885337D+00     -0.131193D+00     -0.145972D+00
   zy        -0.904779D-02     -0.134074D-02     -0.149178D-02
   zz         0.106986D+02      0.158537D+01      0.176396D+01

 First dipole hyperpolarizability, Beta (dipole orientation).
 ||, _|_  parallel and perpendicular components, (z) with respect to z axis,
 vector components x,y,z.  Values do not include the 1/n! factor of 1/2.
 (esu units = statvolt**-1 cm**4 , SI units = C**3 m**3 J**-2)
 Beta(0;0,0):
               (au)            (10**-30 esu)      (10**-50 SI)
   || (z)     0.270064D-02      0.233314D-04      0.865922D-05
   _|_(z)     0.900212D-03      0.777713D-05      0.288641D-05
   x          0.145242D-04      0.125478D-06      0.465698D-07
   y         -0.271273D-03     -0.234359D-05     -0.869800D-06
   z          0.135032D-01      0.116657D-03      0.432961D-04
   ||         0.270118D-02      0.233361D-04      0.866097D-05
   xxx       -0.139071D-03     -0.120147D-05     -0.445913D-06
   xxy       -0.115547D-03     -0.998239D-06     -0.370487D-06
   yxy        0.239557D-03      0.206959D-05      0.768107D-06
   yyy       -0.682463D-04     -0.589595D-06     -0.218822D-06
   xxz        0.158260D-02      0.136724D-04      0.507438D-05
   yxz       -0.119419D-02     -0.103169D-04     -0.382901D-05
   yyz        0.422640D-02      0.365128D-04      0.135514D-04
   zxz       -0.956446D-04     -0.826295D-06     -0.306671D-06
   zyz        0.933693D-04      0.806638D-06      0.299376D-06
   zzz       -0.130793D-02     -0.112995D-04     -0.419370D-05

 ----------------------------------------------------------------------
 1\1\GINC-LINUX\Freq\RHF\3-21G\C4H6\UBUNTU\02-Mar-2023\0\\#N Geom=AllCh
 eck Guess=TCheck SCRF=Check GenChk RHF/3-21G Freq\\Opt and Freq Calcul
 ations\\0,1\C,-0.00002133,0.40155733,0.61389592\H,0.00003887,1.4690712
 1,0.48183078\C,-0.00000629,-0.40155546,-0.61389276\H,0.00003428,-1.469
 06927,-0.48182287\C,-0.00000722,0.1112606,-1.83066805\H,0.00003626,1.1
 7261565,-1.99776229\C,-0.00000602,-0.11126164,1.83066551\H,0.00006992,
 0.50927905,2.70533736\H,0.00002157,-1.1726177,1.99775079\H,0.00004427,
 -0.50928389,-2.70533755\\Version=ES64L-G16RevA.03\State=1-A\HF=-154.05
 94566\RMSD=2.158e-09\RMSF=3.421e-06\ZeroPoint=0.0920543\Thermal=0.0964
 671\Dipole=0.0000963,0.0000005,0.0000014\DipoleDeriv=-0.1377324,0.0000
 3,-0.0000564,0.0000139,0.0855735,0.125875,-0.0000064,-0.024454,0.13318
 82,0.1647469,-0.0000211,0.0000103,-0.0000034,-0.097124,-0.0313794,0.00
 00032,0.0363515,0.0117631,-0.1377316,-0.0000182,0.0000326,-0.0000152,0
 .0855735,0.125874,0.0000054,-0.0244552,0.1331925,0.1647462,0.0000124,-
 0.0000033,0.0000032,-0.0971236,-0.031379,-0.0000016,0.036353,0.0117632
 ,-0.379566,0.0000205,-0.0000804,0.0000034,0.1094585,-0.0385366,-0.0000
 154,0.0538105,-0.1395755,0.1810272,-0.0000181,0.0000284,-0.0000002,-0.
 1018858,0.0279581,0.0000057,-0.0108643,0.0602161,-0.379566,-0.0000173,
 0.0001024,0.0000043,0.1094586,-0.0385376,0.0000207,0.0538109,-0.139573
 9,0.1715246,-0.0000043,-0.0000452,-0.0000019,0.0039785,-0.0839163,-0.0
 000099,-0.0548428,-0.0655952,0.1810271,0.000015,-0.000028,-0.0000035,-
 0.1018867,0.0279578,-0.0000079,-0.0108662,0.0602163,0.171524,0.0000011
 ,0.0000397,-0.0000006,0.0039774,-0.0839162,0.0000061,-0.0548433,-0.065
 5948\Polar=10.6855373,0.0000338,35.9960023,0.0003914,-8.9166894,73.640
 3148\PolarDeriv=-0.0006549,3.2961974,-0.0004901,-10.2302448,0.0000676,
 0.0002316,0.1986457,-0.0003241,-3.8312596,0.0002032,-0.6457597,-1.8220
 313,0.204484,0.0000061,0.5189985,-0.0000968,4.5000576,-38.3881283,0.00
 03575,1.5128002,0.0003104,1.1859717,-0.0000283,-0.0002081,0.4190084,0.
 0002643,7.444251,-0.0001171,0.0626609,0.4371301,0.0351336,-0.00002,-0.
 3075758,0.000072,1.0668285,-1.0686651,0.000259,-3.2961839,-0.0000333,1
 0.2303005,0.0002321,-0.000038,-0.1986441,-0.0000843,3.8312354,0.000171
 7,0.6457503,1.822102,-0.2044879,-0.0000444,-0.5190252,0.0002547,-4.500
 057,38.3882057,0.0001783,-1.512802,0.000126,-1.1859694,-0.00002,-0.000
 126,-0.4190076,0.0001877,-7.4442287,-0.0000819,-0.0626235,-0.4371261,-
 0.0351317,-0.0000161,0.3075923,0.0000364,-1.0668219,1.0686825,-0.00090
 08,3.1580271,-0.0003641,-11.6842122,-0.000162,-0.0010856,0.1478953,-0.
 0004038,-2.3742036,0.0000023,-0.763423,10.9109208,0.1247168,0.0000772,
 0.3890919,-0.000723,5.4781089,-22.0194535,0.0003065,1.7262415,0.000262
 7,0.7249539,-0.0001595,0.000484,0.3644639,0.0001964,7.4012369,-0.00016
 12,-3.1112981,1.2359588,0.1142258,-0.0000131,-0.8199469,0.0001766,1.67
 69927,-3.0566503,-0.0003586,-3.1580293,-0.0001591,11.6841523,-0.000143
 1,-0.0012843,-0.1478989,-0.000226,2.3742354,-0.0002674,0.7634706,-10.9
 110008,-0.1247144,-0.0000235,-0.3890394,-0.0006905,-5.4781195,22.01937
 46,0.0003652,1.5222551,0.000108,0.8961707,0.0001537,0.0008865,0.383615
 2,0.0001685,1.481149,0.0002202,3.6601872,3.6183205,0.159519,0.0000295,
 1.340259,0.0004824,2.4319008,9.3033631,0.0001562,-1.7262391,0.0001509,
 -0.7249598,-0.0001072,0.0004826,-0.3644626,0.0001163,-7.4012371,-0.000
 0819,3.1112457,-1.235939,-0.1142293,0.0000064,0.819913,0.0002015,-1.67
 69755,3.0566081,0.0002915,-1.522267,0.0000886,-0.8961628,0.0001666,0.0
 006572,-0.3836151,0.0001051,-1.4811785,0.0001121,-3.6602104,-3.6183349
 ,-0.1595161,-0.0000022,-1.3402675,0.0002866,-2.4319146,-9.3033368\Hype
 rPolar=-0.0013112,0.0000097,0.004242,-0.000008,0.0000175,0.0011844,-0.
 0001658,0.0015703,-0.0000696,0.0002104\Quadrupole=-3.2186141,1.6346833
 ,1.5839308,0.0000392,0.0000368,-0.1297423\PG=C01 [X(C4H6)]\NImag=0\\0.
 17383043,0.00001461,0.76157044,0.00000509,-0.15323462,0.89704400,-0.05
 434959,-0.00001841,0.00000170,0.03351257,-0.00001511,-0.35913007,0.035
 77999,0.00001707,0.38523258,0.00000200,0.03273801,-0.07450877,-0.00000
 226,-0.03906703,0.07873159,-0.08463228,0.00000165,0.00000258,0.0054065
 1,-0.00000072,-0.00000078,0.17383169,-0.00000120,-0.17896537,-0.063249
 73,0.00000011,-0.01924171,-0.03304666,-0.00001105,0.76156569,0.,-0.063
 24917,-0.19500527,0.00000127,0.00570359,0.00404280,-0.00000289,-0.1532
 2787,0.89703286,0.00540657,0.00000052,-0.00000076,0.00262561,-0.000000
 24,0.00000002,-0.05434941,0.00001202,-0.00000092,0.03351260,0.00000033
 ,-0.01924204,0.00570357,0.00000025,-0.00044157,-0.00265467,0.00001050,
 -0.35912876,0.03578079,-0.00001176,0.38523119,0.00000037,-0.03304672,0
 .00404267,0.00000012,-0.00265464,-0.00447899,-0.00000134,0.03273931,-0
 .07450892,0.00000131,-0.03906786,0.07873199,0.01091600,0.,0.00000054,-
 0.00145097,0.00000002,-0.00000006,-0.07427521,-0.00000132,0.00000532,0
 .01027955,0.00000057,-0.00000038,0.14968370,-0.00000013,0.01900101,-0.
 02152667,0.00000024,0.00154992,-0.00073761,0.00000118,-0.22383002,0.17
 942628,0.00000047,-0.01161696,0.03984174,0.00000312,0.75785021,-0.0000
 0061,0.01492485,-0.05022978,-0.00000020,0.00053065,0.00195354,0.000001
 27,0.18125342,-0.55555859,0.00000022,-0.00121945,-0.00160669,-0.000019
 43,-0.08609052,0.95173722,-0.01038944,-0.00000013,0.00000040,0.0004810
 8,-0.00000006,0.00000006,0.00923237,0.00000031,-0.00000196,0.01348325,
 0.00000072,-0.00000006,-0.04862813,-0.00001379,0.00000421,0.02976190,0
 .00000043,0.00121343,-0.00175085,-0.00000001,0.00086309,0.00098198,-0.
 00000058,-0.01282991,-0.00101554,-0.00000057,0.00083434,0.00181760,-0.
 00000993,-0.36221084,0.04664021,0.00001132,0.38660263,-0.00000030,0.00
 169561,0.00158099,-0.00000007,-0.00099561,-0.00044890,0.00000046,0.039
 72209,-0.00082464,0.00000040,0.00162708,-0.00493984,0.00000245,0.03769
 025,-0.07794920,-0.00000265,-0.05170076,0.07511077,-0.07427420,0.00000
 220,-0.00001046,0.01027981,-0.00000101,0.00000103,0.01091628,0.0000002
 4,-0.00000004,-0.00145099,0.,0.00000006,0.00121851,0.00000019,0.000000
 12,0.00036518,0.00000001,-0.00000003,0.14968255,0.00000014,-0.22383263
 ,0.17943392,-0.00000004,-0.01161730,0.03984198,0.00000020,0.01900093,-
 0.02152677,-0.00000020,0.00154994,-0.00073772,-0.00000018,-0.00475750,
 -0.00641451,0.00000021,0.00055563,-0.00020128,0.00000426,0.75785350,-0
 .00000462,0.18126077,-0.55557055,-0.00000064,-0.00121950,-0.00160657,-
 0.00000072,0.01492490,-0.05023066,0.00000018,0.00053071,0.00195354,0.,
 -0.00641450,0.00227861,-0.00000001,0.00018016,-0.00004858,0.00002925,-
 0.08609608,0.95175101,0.00970479,-0.00000104,0.00000029,-0.00973451,0.
 00000068,0.,0.01455503,0.00000025,0.00000014,-0.00025377,-0.00000013,-
 0.00000001,-0.00053359,-0.00000016,0.00000014,0.00051786,0.,0.00000005
 ,-0.04757521,-0.00001317,-0.00002043,0.02978822,0.00000056,0.01369745,
 0.01781439,0.00000036,0.00151869,-0.00030549,-0.00000039,-0.00148173,0
 .00204549,-0.00000003,0.00043205,0.00043182,0.,0.00082708,0.00040564,-
 0.00000002,-0.00002048,-0.00008804,-0.00001173,-0.17736751,-0.15021040
 ,0.00001315,0.17747382,-0.00000226,-0.02545383,-0.02396264,0.00000076,
 0.00038997,0.00106024,-0.00000100,0.00464267,-0.00256604,0.,-0.0000945
 6,0.00019492,0.00000006,-0.00140604,-0.00097134,0.,0.00011784,0.000020
 38,-0.00001743,-0.14058127,-0.26960689,0.00001973,0.15721101,0.2889530
 2,0.00923267,0.00000069,0.00000085,0.01348327,-0.00000079,-0.00000003,
 -0.01038951,-0.00000001,-0.00000036,0.00048109,0.00000005,-0.00000005,
 0.00036517,-0.00000010,-0.00000009,0.00014438,-0.00000002,0.,-0.048628
 31,0.00000871,-0.00000306,0.00503149,-0.00000194,0.00000004,0.02976190
 ,0.00000020,-0.01283052,-0.00101550,0.00000037,0.00083432,0.00181767,-
 0.00000024,0.00121345,-0.00175097,0.,0.00086313,0.00098198,0.,0.000555
 64,0.00018016,0.00000001,-0.00002510,-0.00023357,0.00000582,-0.3622121
 3,0.04663832,0.00000045,-0.01498247,0.00496281,-0.00000661,0.38660417,
 -0.00000021,0.03972242,-0.00082464,-0.00000067,0.00162713,-0.00493984,
 0.00000050,0.00169572,0.00158092,0.00000003,-0.00099561,-0.00044891,0.
 ,-0.00020129,-0.00004858,0.,-0.00023356,0.00017770,-0.00000244,0.03768
 778,-0.07794855,0.00000015,-0.02751581,0.00732121,0.00000270,-0.051698
 75,0.07511030,0.01455506,-0.00000009,-0.00000022,-0.00025378,0.0000001
 5,0.00000002,0.00970453,0.00000066,-0.00000056,-0.00973449,-0.00000054
 ,-0.00000002,-0.04757502,0.00000898,0.00001438,0.00503156,-0.00000064,
 -0.00000032,-0.00053362,0.00000007,0.00000005,-0.00150030,0.00000005,0
 .00000009,0.00051787,0.,-0.00000006,0.02978818,0.00000017,-0.00148171,
 0.00204550,0.00000005,0.00043204,0.00043181,-0.00000055,0.01369741,0.0
 1781416,-0.00000020,0.00151867,-0.00030552,0.00000773,-0.17736854,-0.1
 5021044,0.00000143,-0.01498278,-0.02751578,0.00000002,0.00082707,0.000
 40563,-0.00000002,-0.00009689,0.00021140,0.00000001,-0.00002049,-0.000
 08804,-0.00000863,0.17747523,0.00000054,0.00464268,-0.00256601,0.,-0.0
 0009456,0.00019491,0.00000192,-0.02545385,-0.02396246,-0.00000049,0.00
 038998,0.00106024,0.00001150,-0.14058163,-0.26960519,0.00000002,0.0049
 6291,0.00732132,-0.00000005,-0.00140603,-0.00097135,-0.00000006,0.0002
 1140,-0.00044286,0.,0.00011784,0.00002038,-0.00001336,0.15721127,0.288
 95102\\-0.00000678,0.00000069,0.00000079,0.00000394,-0.00000085,-0.000
 00001,0.00000205,-0.00000281,0.00000416,0.00000276,0.00000054,0.000000
 58,-0.00000842,0.00000289,-0.00000815,0.00000441,-0.00000031,0.0000003
 0,-0.00000648,-0.00000091,0.00000382,0.00000330,0.00000049,0.00000004,
 0.00000325,0.00000055,-0.00000111,0.00000196,-0.00000028,-0.00000040\\
 \@


 I WISH TO HAVE NO CONNECTION WITH ANY SHIP THAT DOES NOT SAIL FAST,
 FOR I INTEND TO GO IN HARM'S WAY.
     -- JOHN PAUL JONES, USN 1747-1792
 Job cpu time:       0 days  0 hours  0 minutes  1.6 seconds.
 Elapsed time:       0 days  0 hours  0 minutes  1.5 seconds.
 File lengths (MBytes):  RWF=      7 Int=      0 D2E=      0 Chk=      2 Scr=      1
 Normal termination of Gaussian 16 at Thu Mar  2 17:46:52 2023.
